
#(C) 2016 by FIZ Karlsruhe - Leibniz Institute for Information Infrastructure.  All rights reserved.
data_16559-ICSD
_database_code_ICSD 16559
_audit_creation_date 1986-09-23
_chemical_name_systematic 'Uranium oxide (3/8)'
_chemical_formula_structural 'U3 O8'
_chemical_formula_sum 'O8 U3'
_chemical_name_structure_type U3O8
_exptl_crystal_density_diffrn 8.39
_publ_section_title 'Neutron Diffraction Investigation of U3 O8'
loop_
_citation_id
_citation_journal_full
_citation_year
_citation_journal_volume
_citation_page_first
_citation_page_last
_citation_journal_id_ASTM
primary 'Acta Crystallographica (1,1948-23,1967)' 1964 17 651 654 ACCRA9
loop_
_publ_author_name
'Loopstra, B.O.'
_cell_length_a 4.148
_cell_length_b 11.968
_cell_length_c 6.717
_cell_angle_alpha 90.
_cell_angle_beta 90.
_cell_angle_gamma 90.
_cell_volume 333.45
_cell_formula_units_Z 2
_symmetry_space_group_name_H-M 'A m m 2'
_symmetry_Int_Tables_number 38
_refine_ls_R_factor_all 0.043
loop_
_symmetry_equiv_pos_site_id
_symmetry_equiv_pos_as_xyz
1 'x, -y, z'
2 '-x, y, z'
3 '-x, -y, z'
4 'x, y, z'
5 'x, -y+1/2, z+1/2'
6 '-x, y+1/2, z+1/2'
7 '-x, -y+1/2, z+1/2'
8 'x, y+1/2, z+1/2'
loop_
_atom_type_symbol
_atom_type_oxidation_number
U0+ 0
O0+ 0
loop_
_atom_site_label
_atom_site_type_symbol
_atom_site_symmetry_multiplicity
_atom_site_Wyckoff_symbol
_atom_site_fract_x
_atom_site_fract_y
_atom_site_fract_z
_atom_site_B_iso_or_equiv
_atom_site_occupancy
_atom_site_attached_hydrogens
U1 U0+ 2 a 0 0 0.962 . 1. 0
U2 U0+ 4 d 0 0.324 0 . 1. 0
O1 O0+ 2 b 0.5 0 0.962 . 1. 0
O2 O0+ 4 e 0.5 0.324 0 . 1. 0
O3 O0+ 2 a 0 0 0.598 . 1. 0
O4 O0+ 4 d 0 0.126 0.197 . 1. 0
O5 O0+ 4 d 0 0.328 0.327 . 1. 0
#End of TTdata_16559-ICSD